 Gaussian 16, Revision A.03,
 Gaussian 16:  ES64L-G16RevA.03 25-Dec-2016

 ----------------------------------------------------------------------
 #b3lyp/aug-cc-pvdz #SCF=tight #maxdisk=200GB #Pop=MK iop(6/33=2) iop(6
 /42=6) iop(6/43=20) #IOP(5/87=12) #density=current
 ----------------------------------------------------------------------

 --------------------------------
 C3 MP2/6-311++G(d,p) coordinates
 --------------------------------
 Symbolic Z-matrix:
 Charge =  0 Multiplicity = 1

                         Standard orientation:
 ---------------------------------------------------------------------
 Center     Atomic      Atomic             Coordinates (Angstroms)
 Number     Number       Type             X           Y           Z
 ---------------------------------------------------------------------
      1          6           0       -1.361797   -0.515790   -0.000058
      2          1           0       -2.293815    0.053063   -0.000101
      3          1           0       -1.338738   -1.144434   -0.893950
      4          1           0       -1.338816   -1.144425    0.893843
      5         16           0        0.000000    0.666317   -0.000006
      6          6           0        1.361797   -0.515790    0.000067
      7          1           0        2.293815    0.053063    0.000109
      8          1           0        1.338734   -1.144425    0.893965
      9          1           0        1.338820   -1.144434   -0.893827
 ---------------------------------------------------------------------

 SCF Done:  E(RB3LYP) =  -478.040172918     A.U. after   10 cycles

 The electronic state is 1-A.
 Alpha  occ. eigenvalues --  -88.87412 -10.20880 -10.20877  -7.93510  -5.89956
 Alpha  occ. eigenvalues --   -5.89589  -5.88875  -0.80447  -0.70908  -0.60173
 Alpha  occ. eigenvalues --   -0.44550  -0.44386  -0.42774  -0.41094  -0.36672
 Alpha  occ. eigenvalues --   -0.31871  -0.22350
 Alpha virt. eigenvalues --   -0.01109  -0.00204   0.01804   0.01855   0.03382
 Alpha virt. eigenvalues --    0.04211   0.04731   0.05112   0.07000   0.08864
 Alpha virt. eigenvalues --    0.09469   0.10396   0.10758   0.10880   0.11982

 Mulliken charges:
               1
     1  C    0.675600
     2  H   -0.319634
     3  H   -0.249803
     4  H   -0.249803
     5  S    0.287280
     6  C    0.675600
     7  H   -0.319634
     8  H   -0.249803
     9  H   -0.249803
 Sum of Mulliken charges =  -0.00000

 Dipole moment (field-independent basis, Debye):
    X=              0.0000    Y=             -1.6140    Z=              0.0000  Tot=              1.6140
 Quadrupole moment (field-independent basis, Debye-Ang):
   XX=            -24.5257   YY=            -28.8972   ZZ=            -29.0511
   XY=              0.0000   XZ=              0.0002   YZ=             -0.0000

 ESP charges:
               1
     1  C   -0.336314
     2  H    0.156938
     3  H    0.130801
     4  H    0.130800
     5  S   -0.162893
     6  C   -0.343132
     7  H    0.159288
     8  H    0.132256
     9  H    0.132255
 Sum of ESP charges =  -0.00000

 Normal termination of Gaussian 16 at Tue Feb 14 10:18:44 2023.
