 Gaussian 16, Revision A.03,
 Gaussian 16:  ES64L-G16RevA.03 25-Dec-2016

 ----------------------------------------------------------------------
 #b3lyp/aug-cc-pvdz #SCF=tight #maxdisk=200GB #Pop=MK iop(6/33=2) iop(6
 /42=6) iop(6/43=20) #IOP(5/87=12) #density=current
 ----------------------------------------------------------------------

 ----------------------------------
 Coordinates from nh4_m6311_opt.chk
 ----------------------------------
 Symbolic Z-matrix:
 Charge =  1 Multiplicity = 1

                         Standard orientation:
 ---------------------------------------------------------------------
 Center     Atomic      Atomic             Coordinates (Angstroms)
 Number     Number       Type             X           Y           Z
 ---------------------------------------------------------------------
      1          1           0        0.951190    0.348538   -0.152959
      2          7           0        0.000052    0.000090   -0.000048
      3          1           0       -0.142160   -0.855519   -0.545365
      4          1           0       -0.133113   -0.203822    0.995004
      5          1           0       -0.676283    0.710173   -0.296343
 ---------------------------------------------------------------------

 SCF Done:  E(RB3LYP) =  -56.9055987893     A.U. after    6 cycles

 The electronic state is 1-A.
 Alpha  occ. eigenvalues --  -14.70880  -1.25039  -0.82625  -0.82615  -0.82609
 Alpha virt. eigenvalues --   -0.24001  -0.15702  -0.15700  -0.15699  -0.10661
 Alpha virt. eigenvalues --   -0.10660  -0.10656  -0.06032  -0.02615  -0.02615
 Alpha virt. eigenvalues --   -0.02591  -0.02591  -0.02590   0.10058   0.19182

 Mulliken charges:
               1
     1  H    0.146058
     2  N    0.415972
     3  H    0.146098
     4  H    0.145881
     5  H    0.145991
 Sum of Mulliken charges =   1.00000

 Dipole moment (field-independent basis, Debye):
    X=             -0.0005    Y=             -0.0009    Z=              0.0004  Tot=              0.0011
 Quadrupole moment (field-independent basis, Debye-Ang):
   XX=             -4.3688   YY=             -4.3709   ZZ=             -4.3725
   XY=             -0.0000   XZ=             -0.0000   YZ=             -0.0001

 ESP charges:
               1
     1  H    0.443011
     2  N   -0.771418
     3  H    0.442766
     4  H    0.442734
     5  H    0.442906
 Sum of ESP charges =   1.00000

 1\1\GINC-RAYL8\SP\RB3LYP\Aug-CC-pVDZ\H4N1(1+)\ZHUQIANG\14-Feb-2023\0\\
 #b3lyp/aug-cc-pvdz #SCF=tight #maxdisk=200GB #Pop=MK iop(6/33=2) iop(6
 /42=6) iop(6/43=20) #IOP(5/87=12) #density=current\\Coordinates from n
 h4_m6311_opt.chk\\1,1\H,0,-0.9511901362,0.3485378515,0.1529593238\N,0,
 -0.0000521583,0.0000900319,0.0000480136\H,0,0.1421598834,-0.8555191209
 ,0.5453650916\H,0,0.1331125627,-0.2038215436,-0.9950038301\H,0,0.67628
 27979,0.7101725894,0.2963433199\\Version=ES64L-G16RevA.03\State=1-A\HF
 =-56.9055988\RMSD=7.077e-09\Dipole=0.0001938,-0.0003508,-0.0001658\Qua

 Normal termination of Gaussian 16 at Tue Feb 14 16:10:09 2023.
