 Gaussian 16, Revision A.03,
 Gaussian 16:  ES64L-G16RevA.03 25-Dec-2016

 ----------------------------------------------------------------------
 #b3lyp/aug-cc-pvdz #SCF=tight #maxdisk=200GB #Pop=MK iop(6/33=2) iop(6
 /42=6) iop(6/43=20) #IOP(5/87=12) #density=current
 ----------------------------------------------------------------------

 --------------------------------
 B2 MP2/6-311++G(d,p) coordinates
 --------------------------------
 Symbolic Z-matrix:
 Charge =  0 Multiplicity = 1

                         Standard orientation:
 ---------------------------------------------------------------------
 Center     Atomic      Atomic             Coordinates (Angstroms)
 Number     Number       Type             X           Y           Z
 ---------------------------------------------------------------------
      1          6           0       -0.708096   -0.000001    0.017713
      2          1           0       -1.112964   -0.880514   -0.486271
      3          1           0       -1.074380   -0.000087    1.053630
      4          1           0       -1.112943    0.880611   -0.486114
      5          7           0        0.750288   -0.000001   -0.122137
      6          1           0        1.148420    0.813655    0.333718
      7          1           0        1.148425   -0.813654    0.333718
 ---------------------------------------------------------------------

 SCF Done:  E(RB3LYP) =  -95.8737849464     A.U. after   10 cycles

 The electronic state is 1-A.
 Alpha  occ. eigenvalues --  -14.31598 -10.20250  -0.87991  -0.66321  -0.49358
 Alpha  occ. eigenvalues --   -0.44306  -0.40585  -0.37150  -0.24438
 Alpha virt. eigenvalues --   -0.01276   0.00933   0.01924   0.02677   0.05031
 Alpha virt. eigenvalues --    0.06545   0.09780   0.09834   0.11027   0.11385
 Alpha virt. eigenvalues --    0.12456   0.13684   0.15964   0.18092   0.19424

 Mulliken charges:
               1
     1  C    1.176800
     2  H   -0.324737
     3  H   -0.284424
     4  H   -0.324742
     5  N   -0.054193
     6  H   -0.094350
     7  H   -0.094354
 Sum of Mulliken charges =  -0.00000

 Dipole moment (field-independent basis, Debye):
    X=             -0.2641    Y=              0.0000    Z=              1.2951  Tot=              1.3217
 Quadrupole moment (field-independent basis, Debye-Ang):
   XX=            -14.2991   YY=            -12.8557   ZZ=            -15.7250
   XY=             -0.0000   XZ=              2.0491   YZ=              0.0000

 ESP charges:
               1
     1  C    0.383009
     2  H   -0.020161
     3  H   -0.092307
     4  H   -0.020161
     5  N   -0.907881
     6  H    0.328749
     7  H    0.328753
 Sum of ESP charges =   0.00000

 Normal termination of Gaussian 16 at Tue Feb 14 16:34:00 2023.
